9
Electronic Energy: -352434.6390556 a.u.
C          3.06255        0.32817        0.19747
O          3.54809       -0.69419       -0.08387
O          2.68905        1.39099        0.49866
O         -1.16857        1.41421        0.27585
V         -0.95853       -0.17381       -0.16692
O         -1.72735       -0.48657       -1.60763
O         -1.69265       -1.28081        1.17296
O          0.64885       -0.57814       -0.23720
H         -2.63728       -1.13031        1.32395
