3
Electronic Energy: -118262.4610005 a.u.
C          0.15931       -0.21650        0.00000
O         -0.10976        0.14916        1.09602
O         -0.10976        0.14916       -1.09602
