3
Electronic Energy: -118299.8598420 a.u.
C          0.00000        0.00000        0.00000
O          0.00000        0.00000        1.16440
O          0.00000        0.00000       -1.16440
