3
Electronic Energy: -118270.8470001 a.u.
C          0.13956       -0.18967        0.00000
O         -0.09988        0.13575        1.11004
O         -0.09988        0.13575       -1.11004
