3
Electronic Energy: -118296.0292826 a.u.
C          0.04010       -0.05450        0.00000
O         -0.05015        0.06816        1.15670
O         -0.05015        0.06816       -1.15670
