3
Electronic Energy: -118298.1694068 a.u.
C          0.02006       -0.02727        0.00000
O         -0.04013        0.05454        1.16094
O         -0.04013        0.05454       -1.16094
