3
Electronic Energy: -118228.4991207 a.u.
C          0.21868       -0.29719        0.00000
O         -0.13944        0.18950        1.04659
O         -0.13944        0.18950       -1.04659
