3
Electronic Energy: -118292.9874662 a.u.
C          0.06010       -0.08168        0.00000
O         -0.06015        0.08175        1.15069
O         -0.06015        0.08175       -1.15069
