3
Electronic Energy: -118241.4658634 a.u.
C          0.19882       -0.27020        0.00000
O         -0.12951        0.17601        1.06421
O         -0.12951        0.17601       -1.06421
