3
Electronic Energy: -118284.0301934 a.u.
C          0.09994       -0.13583        0.00000
O         -0.08007        0.10882        1.13359
O         -0.08007        0.10882       -1.13359
