3
Electronic Energy: -118289.0042081 a.u.
C          0.08005       -0.10879        0.00000
O         -0.07013        0.09530        1.14297
O         -0.07013        0.09530       -1.14297
