3
Electronic Energy: -118252.7200525 a.u.
C          0.17903       -0.24331        0.00000
O         -0.11962        0.16257        1.08065
O         -0.11962        0.16257       -1.08065
