3
Electronic Energy: -118299.4391553 a.u.
C          0.00000       -0.00001        0.00000
O         -0.03010        0.04091        1.16354
O         -0.03010        0.04091       -1.16354
