3
Electronic Energy: -118278.0038058 a.u.
C          0.11978       -0.16279        0.00000
O         -0.08999        0.12230        1.12259
O         -0.08999        0.12230       -1.12259
